Cu umbrella sampling script 

1000 atoms
0 bonds 
0 angles 

1 atom types 

0.157251 29.4448 xlo xhi 
0.157251 29.4448 ylo yhi 
0.171578 32.125 zlo zhi 

Masses 

1 118.71 

Atoms 

1    1 27.2883   29.0896   0.197243
2    1 2.07032   29.1347   0.413462
3    1 4.22584   2.24335   2.74478
4    1 2.42855   4.43974   1.15519
5    1 5.69257   27.936    30.5797
6    1 8.39259   0.782027  2.62671
7    1 10.1      4.57132   0.954588
8    1 7.036     3.42184   1.81865
9    1 13.241    29.6663   1.10771
10   1 14.3724   2.86454   2.12386
11   1 13.5412   3.19325   31.31
12   1 11.1938   2.0811    3.13745
13   1 15.9832   0.337968  31.8892
14   1 19.2941   28.0938   1.78046
15   1 21.0489   3.44478   32.0981
16   1 17.2772   2.22801   1.77927
17   1 21.8926   0.522459  1.22285
18   1 24.8492   1.93061   1.04012
19   1 28.1535   2.65405   1.10343
20   1 21.1154   3.04428   3.23142
21   1 0.339657  7.39758   0.169771
22   1 3.28565   7.3291    31.9871
23   1 2.55699   10.1021   1.96447
24   1 28.9122   9.10179   2.89218
25   1 7.09224   5.77656   31.6267
26   1 9.75927   7.67372   0.409332
27   1 8.92353   10.628    0.412756
28   1 8.21234   10.0734   3.46284
29   1 12.37     6.35217   31.1427
30   1 14.4666   7.77018   0.965168
31   1 13.9979   10.3866   2.71535
32   1 11.9262   8.04804   2.5165
33   1 17.717    7.97843   0.560747
34   1 20.2218   6.20362   31.9296
35   1 21.9399   8.91281   3.17066
36   1 18.687    8.83132   3.22214
37   1 24.1827   6.0324    0.288664
38   1 24.6454   4.55197   3.19266
39   1 26.7273   7.23989   1.41916
40   1 24.4418   10.1928   2.34309
41   1 1.0391    13.3197   31.8041
42   1 3.46203   13.0905   1.97321
43   1 6.52726   12.1547   1.56405
44   1 7.76746   14.8709   2.07345
45   1 12.999    12.3706   0.728453
46   1 15.7371   10.4204   31.8343
47   1 17.5248   12.153    1.27619
48   1 20.2654   11.2655   2.12395
49   1 23.2778   11.5418   31.5752
50   1 27.4275   11.5536   2.13763
51   1 1.24963   1.99178   2.68776
52   1 6.95655   2.80217   5.01125
53   1 4.66962   4.57104   4.78501
54   1 1.86233   3.66089   5.29173
55   1 6.06925   28.8319   4.19595
56   1 8.72951   29.4331   5.68771
57   1 9.04892   4.55057   3.87796
58   1 6.33374   0.831146  7.70626
59   1 13.1004   28.6893   3.8764
60   1 14.5453   27.8338   6.83959
61   1 14.2069   1.97022   5.01915
62   1 11.1716   1.78641   6.06849
63   1 16.6826   0.405844  5.41213
64   1 19.0319   1.05559   3.72981
65   1 21.4557   5.208     5.59709
66   1 17.0137   3.65694   4.95631
67   1 23.7138   1.5769    3.85884
68   1 26.6675   0.719761  3.40266
69   1 28.386    2.45091   4.91565
70   1 23.7772   3.35686   6.26486
71   1 0.824545  6.05049   3.14849
72   1 4.97897   5.8394    2.05445
73   1 2.36606   8.53875   4.74933
74   1 28.3202   8.5631    5.88197
75   1 5.34683   9.28056   1.8324
76   1 7.82886   7.12429   2.68318
77   1 9.84344   7.68943   4.99717
78   1 6.57406   10.203    5.91412
79   1 12.417    5.1224    3.23072
80   1 15.4828   5.71641   2.82278
81   1 16.6777   7.35692   5.2019
82   1 12.7961   7.84803   5.82049
83   1 17.668    4.92799   0.719197
84   1 18.8937   5.58759   3.47495
85   1 22.0595   8.40403   6.01666
86   1 19.1459   9.09227   6.38341
87   1 21.9083   6.19769   2.3127
88   1 27.5149   4.80805   2.90162
89   1 25.8766   8.47769   4.15901
90   1 22.7945   10.8062   7.23435
91   1 0.32706   13.4833   2.99059
92   1 2.03127   11.619    4.72175
93   1 5.28638   12.6513   4.64727
94   1 8.49642   12.9495   4.8462
95   1 11.1896   10.5573   4.45005
96   1 14.9815   9.80561   5.98678
97   1 16.8133   11.2015   3.98599
98   1 19.6262   11.8538   5.0577
99   1 22.884    13.0396   2.53358
100  1 25.4698   12.5326   4.17278
101  1 4.02644   1.37875   5.9073
102  1 3.93391   1.03215   9.84997
103  1 3.61086   4.21175   9.52908
104  1 1.71243   2.53158   8.02901
105  1 6.0653    27.0594   7.32056
106  1 9.06143   28.6009   8.6704
107  1 8.60997   3.21522   7.50636
108  1 6.49633   3.15868   9.66073
109  1 11.5252   27.879    6.76132
110  1 14.7709   0.617515  8.94734
111  1 13.493    3.0145    7.92338
112  1 10.9797   1.97461   9.33239
113  1 17.5408   1.06788   8.07654
114  1 22.2363   0.891846  6.90189
115  1 19.7098   2.72673   6.3322
116  1 16.6641   4.11059   8.34884
117  1 25.2388   0.0746045 6.21728
118  1 28.565    0.330627  7.03799
119  1 26.4452   2.78131   7.39158
120  1 24.0083   5.39237   8.66861
121  1 0.916189  6.19426   6.51798
122  1 4.12372   6.11821   7.34777
123  1 2.56869   8.89128   7.64445
124  1 28.8281   8.93694   9.02864
125  1 5.22813   7.74958   4.5914
126  1 7.35041   5.9658    6.44857
127  1 8.77498   8.4994    7.77751
128  1 5.69282   8.48461   8.31517
129  1 11.2472   4.8456    6.13447
130  1 14.4077   5.15918   5.75176
131  1 15.4528   7.14309   8.20547
132  1 12.3537   7.45504   9.03011
133  1 18.7002   5.87127   6.88454
134  1 21.2712   6.64836   8.53278
135  1 20.6007   9.48996   9.20434
136  1 17.8883   8.29065   9.44014
137  1 24.418    6.49091   5.60842
138  1 27.3176   5.39062   5.78048
139  1 26.0935   7.85594   7.9643
140  1 23.7271   8.73146   9.7496
141  1 28.7888   11.51     6.26539
142  1 4.03495   11.5047   7.32965
143  1 5.86147   13.7818   8.60996
144  1 8.32983   11.7655   7.91871
145  1 11.2506   10.0987   7.474
146  1 14.2246   10.3787   8.90882
147  1 17.2397   11.0218   7.71862
148  1 20.2114   12.4405   8.09309
149  1 22.6055   13.1829   5.51663
150  1 25.6211   10.5816   6.59926
151  1 2.20064   28.6714   7.37624
152  1 1.12881   28.6468   10.7086
153  1 3.06272   1.56464   12.5767
154  1 29.2555   1.76494   12.8186
155  1 6.84651   29.2229   10.7338
156  1 9.8002    28.74     11.9016
157  1 8.73747   2.4179    11.609
158  1 5.95257   3.32932   12.6682
159  1 12.2315   28.3969   9.85786
160  1 15.9064   27.7211   10.8543
161  1 14.7421   2.25019   11.415
162  1 12.0267   1.87886   12.6685
163  1 18.738    27.9453   9.03105
164  1 23.0519   28.4226   9.2512
165  1 20.5342   2.27462   9.31843
166  1 17.6995   2.21785   10.9074
167  1 26.1723   29.1358   9.29083
168  1 28.5678   1.5361    9.94794
169  1 26.3488   3.05912   11.0091
170  1 23.7697   2.32177   9.41254
171  1 1.5859    6.59385   9.60766
172  1 3.15441   4.52788   12.6784
173  1 4.37846   7.25322   11.1437
174  1 1.4824    7.59891   12.4412
175  1 7.0094    6.15928   9.78144
176  1 9.9908    5.74755   8.66273
177  1 9.19437   8.29879   10.7341
178  1 6.60616   8.95559   12.4364
179  1 11.2579   4.65247   11.3109
180  1 13.9271   5.02754   10.1095
181  1 14.6697   8.24133   11.381
182  1 11.8846   7.49992   12.2881
183  1 19.0294   5.11878   9.99629
184  1 21.8773   4.55554   11.0191
185  1 20.0468   9.62647   12.1123
186  1 17.8333   7.23074   12.2064
187  1 26.6009   5.82392   10.1607
188  1 28.7326   4.48433   8.63068
189  1 27.7845   8.05636   11.8888
190  1 22.9936   9.23666   12.8378
191  1 27.08     11.7724   8.90214
192  1 1.27285   11.6348   8.69323
193  1 5.9667    11.009    9.90546
194  1 8.70135   11.2148   11.0616
195  1 11.8143   10.2995   10.7349
196  1 14.2275   11.2952   12.3621
197  1 16.9493   10.7459   10.9652
198  1 19.4238   12.5882   10.8998
199  1 23.9562   12.0232   9.63937
200  1 25.9792   10.3615   11.5647
201  1 1.1802    28.4965   13.8997
202  1 3.47028   29.4056   15.6014
203  1 2.60835   2.92191   15.5066
204  1 29.0068   2.6721    15.5844
205  1 5.60124   0.375342  13.4314
206  1 8.53483   0.709145  14.4895
207  1 9.60106   3.52177   14.5701
208  1 6.55346   3.62987   15.6912
209  1 13.4774   28.0774   12.8075
210  1 15.3229   0.663279  14.0055
211  1 17.9726   1.98444   14.8909
212  1 14.3196   3.45285   14.7345
213  1 17.896    28.9772   12.55
214  1 20.6698   28.9952   11.0324
215  1 22.2461   1.8693    12.4655
216  1 20.3677   0.383823  14.3361
217  1 24.7767   0.192987  12.1445
218  1 27.3006   28.6497   13.7985
219  1 26.1538   2.31739   13.9526
220  1 23.5171   2.64009   14.9868
221  1 0.126682  4.66446   11.7337
222  1 1.96341   6.23058   15.1463
223  1 2.19853   10.168    13.8257
224  1 28.9273   8.53114   14.8848
225  1 5.60837   6.48282   14.14
226  1 8.35417   5.59433   12.6052
227  1 9.27635   8.44867   14.0806
228  1 3.81391   8.52904   15.7254
229  1 11.945    5.15346   14.5399
230  1 15.4407   5.1935    12.6667
231  1 15.4021   7.77614   14.4092
232  1 12.2828   8.53023   15.022
233  1 18.3106   4.24473   13.0792
234  1 21.1287   4.66242   13.9935
235  1 20.5395   7.42523   14.1943
236  1 18.1649   8.02783   15.9558
237  1 24.0371   6.46722   12.0763
238  1 26.772    5.2648    13.4403
239  1 25.758    8.31241   14.4833
240  1 22.7227   8.31898   15.8643
241  1 29.2848   11.0611   11.5216
242  1 1.62528   13.3508   12.9341
243  1 2.99758   9.96027   10.8251
244  1 8.29837   11.5053   14.1909
245  1 11.2206   11.092    13.6268
246  1 14.7016   10.82     15.3058
247  1 17.5502   10.1611   13.9189
248  1 19.8579   12.1033   14.2726
249  1 22.3259   12.1766   12.072
250  1 25.6237   11.2891   14.4051
251  1 29.0147   29.2375   16.7355
252  1 2.55769   29.1447   18.3334
253  1 2.62813   2.78105   18.5862
254  1 28.878    3.01716   18.5884
255  1 6.2597    0.729004  16.5338
256  1 9.25984   0.366121  17.4415
257  1 8.88488   3.65415   17.8204
258  1 5.64538   2.60178   18.742
259  1 11.7971   1.77417   15.9878
260  1 14.515    0.386081  16.8135
261  1 14.9295   3.28249   17.7172
262  1 11.9722   3.49537   18.5002
263  1 17.2489   29.0116   17.5358
264  1 20.2821   28.9293   17.4172
265  1 20.7591   2.73346   16.566
266  1 17.9323   2.85454   18.0561
267  1 23.4628   0.242393  16.549
268  1 26.0291   28.0491   16.7959
269  1 26.2248   1.96694   17.1349
270  1 23.4811   3.25363   18.2198
271  1 28.5151   5.48851   15.766
272  1 2.33413   7.0938    18.4228
273  1 2.74947   10.1148   18.173
274  1 28.9619   8.89586   17.851
275  1 4.24958   5.10357   16.8515
276  1 8.37128   6.28203   15.9457
277  1 8.31554   9.82362   16.7821
278  1 6.18058   7.71123   17.2544
279  1 10.9981   6.29881   17.4794
280  1 14.1517   6.28693   16.5776
281  1 14.5003   9.11298   18.0913
282  1 11.5519   9.76542   17.6699
283  1 17.1723   5.04247   15.7828
284  1 20.131    5.68364   17.1001
285  1 20.5765   8.81375   17.8928
286  1 17.4082   8.42748   18.9154
287  1 24.0457   5.53586   15.0039
288  1 25.9695   5.31403   17.5544
289  1 25.5104   8.28436   17.4047
290  1 23.2352   9.41421   19.0412
291  1 28.5798   11.5629   14.6422
292  1 2.85196   12.4017   15.9679
293  1 5.28064   10.8294   14.3295
294  1 9.5521    12.3606   17.6377
295  1 12.1759   12.3553   16.0799
296  1 14.674    13.3356   17.4427
297  1 17.2143   11.0424   17.2096
298  1 20.0886   11.5749   17.1886
299  1 22.7701   11.3565   15.3705
300  1 26.4721   11.3343   17.2575
301  1 29.0456   29.4667   19.7404
302  1 2.11024   29.1335   21.5111
303  1 2.30901   2.84169   21.5817
304  1 28.4019   2.73681   21.9318
305  1 4.92758   29.4942   20.359
306  1 10.1591   1.48485   20.1333
307  1 7.71305   3.04659   21.0177
308  1 5.1095    2.32485   22.4783
309  1 12.5083   29.3626   21.5671
310  1 14.6086   28.3676   19.6386
311  1 15.0126   3.25167   20.6978
312  1 12.1783   3.26487   21.6629
313  1 16.8961   1.04845   20.3243
314  1 19.5699   29.1421   20.4436
315  1 20.432    2.59975   19.7357
316  1 17.3727   2.15813   23.2244
317  1 22.8594   0.0753106 19.5088
318  1 25.8761   0.449086  20.0898
319  1 25.9744   3.63446   20.2124
320  1 23.1304   2.8868    21.435
321  1 28.7763   6.07698   18.8618
322  1 3.36394   5.70028   21.0842
323  1 3.4327    8.85245   21.1841
324  1 0.346325  8.58476   21.1484
325  1 5.98782   5.61875   19.4824
326  1 9.03826   5.92136   19.8451
327  1 9.3223    9.01337   19.7467
328  1 6.03303   9.55631   19.6548
329  1 12.2483   6.26832   20.3705
330  1 15.254    6.16169   19.4157
331  1 12.4758   9.35314   20.675
332  1 10.3195   7.84446   22.4684
333  1 18.3418   5.44148   19.364
334  1 20.0652   4.98332   21.6551
335  1 19.71     9.23745   20.7547
336  1 16.6969   9.78493   21.5471
337  1 22.8652   6.16261   18.14
338  1 25.9271   6.91887   20.5464
339  1 26.9132   9.89824   20.1222
340  1 24.0976   9.20386   21.9322
341  1 0.231974  12.0927   17.6423
342  1 3.63961   12.0617   20.2535
343  1 5.72337   11.5774   17.3838
344  1 9.2905    11.8331   20.9767
345  1 12.1229   12.5827   19.4719
346  1 14.9936   11.5834   19.9238
347  1 17.6106   13.162    19.4526
348  1 21.3061   11.7863   20.1209
349  1 23.7342   12.2718   18.0173
350  1 25.4796   12.4433   20.5057
351  1 0.125749  0.745105  23.991
352  1 3.29605   29.2948   24.2939
353  1 1.98197   3.24002   24.6934
354  1 28.1645   3.71927   25.3699
355  1 6.06333   28.6273   23.484
356  1 8.54395   0.684117  22.7304
357  1 7.89812   3.13531   24.3635
358  1 5.08926   2.34625   25.5543
359  1 11.4061   26.6612   22.2425
360  1 14.1352   2.10087   23.7511
361  1 15.4933   4.37208   25.2717
362  1 11.2869   2.88688   24.8503
363  1 15.4913   28.84     22.7605
364  1 20.167    0.418753  23.2635
365  1 21.0899   3.1576    23.8538
366  1 18.5021   3.40488   25.7776
367  1 23.4696   29.3995   22.5665
368  1 26.5616   0.275731  23.0589
369  1 25.5344   3.55011   23.3765
370  1 23.2962   4.00489   25.6397
371  1 0.287995  5.50533   21.6453
372  1 3.47094   6.08965   24.2708
373  1 3.92405   8.91668   24.4285
374  1 0.592939  9.23446   24.1836
375  1 6.08438   5.26728   22.8735
376  1 9.73985   4.82772   22.5333
377  1 7.26858   7.70598   21.8883
378  1 6.88497   9.56896   24.0446
379  1 12.7722   5.91173   23.8017
380  1 14.7536   7.63777   22.1153
381  1 14.5257   9.55008   24.5121
382  1 11.7119   8.55928   25.1443
383  1 16.8211   5.04232   22.2363
384  1 19.5814   6.07157   24.6713
385  1 21.2534   7.88021   22.8039
386  1 18.8286   9.40326   23.9939
387  1 23.0228   6.05096   21.1844
388  1 27.069    6.10626   23.1561
389  1 26.9867   9.05591   23.2126
390  1 23.297    9.59893   24.8499
391  1 0.334304  11.6977   20.6848
392  1 2.56445   11.4587   23.2522
393  1 6.31587   11.7711   21.7722
394  1 9.79038   10.7919   23.7554
395  1 13.0722   11.3402   22.7237
396  1 16.2498   11.9543   23.5568
397  1 19.0424   12.0903   22.2114
398  1 21.2528   11.8747   24.7633
399  1 23.1142   12.0773   22.4187
400  1 27.4058   12.1477   22.8708
401  1 28.3629   0.893159  27.013
402  1 2.18039   29.2708   26.9637
403  1 2.48024   2.91847   27.7076
404  1 29.021    3.55876   28.3837
405  1 6.98433   29.2605   26.2984
406  1 9.44794   1.3643    26.7466
407  1 8.28084   3.92008   27.6675
408  1 5.32939   3.40842   29.2332
409  1 10.801    29.0113   24.4316
410  1 13.2759   0.597461  26.2851
411  1 13.1295   3.90867   27.2021
412  1 10.7167   5.66462   26.5331
413  1 18.0781   28.5871   25.0208
414  1 19.695    0.732327  27.03
415  1 21.0263   3.52617   27.6627
416  1 16.3014   3.65714   28.0893
417  1 22.4493   0.665374  25.5464
418  1 25.5995   1.4813    25.9177
419  1 25.7516   4.09164   27.6642
420  1 23.4049   1.69147   28.4561
421  1 0.568372  6.23365   24.7478
422  1 3.04618   5.72531   27.3696
423  1 2.52645   8.89151   27.1123
424  1 28.8357   9.84299   27.2667
425  1 5.84231   5.05353   26.1958
426  1 6.78303   7.39508   28.0017
427  1 8.16306   11.0456   29.1664
428  1 5.7148    10.0907   26.9533
429  1 8.31119   6.59788   25.0249
430  1 14.0532   6.82747   26.7326
431  1 16.2803   9.73943   26.9747
432  1 11.2179   10.84     28.7214
433  1 16.792    7.19421   24.7522
434  1 22.0208   6.94545   26.169
435  1 22.5074   9.4917    27.8205
436  1 19.4251   8.57835   27.0356
437  1 24.1495   6.54584   24.0883
438  1 26.7461   6.55293   26.1981
439  1 25.9999   9.59284   26.0668
440  1 25.3437   8.0854    28.521
441  1 0.267021  12.4792   25.0103
442  1 2.8786    11.9671   26.6035
443  1 5.26283   12.2909   24.5947
444  1 9.02067   9.24825   26.6443
445  1 12.3595   11.6104   25.9025
446  1 15.2001   12.6964   26.4264
447  1 18.4537   11.6828   26.073
448  1 22.6694   12.5678   27.2577
449  1 24.8824   12.4737   24.8895
450  1 27.1001   12.5123   26.946
451  1 26.0021   29.2695   28.9348
452  1 29.2951   0.668256  30.1565
453  1 2.43975   2.37214   30.811
454  1 29.3578   4.52026   31.1056
455  1 4.81409   0.499473  28.339
456  1 10.9592   1.66415   31.8557
457  1 8.11923   3.00579   30.7123
458  1 5.36141   1.65182   31.8079
459  1 11.2938   0.894773  28.9394
460  1 13.2619   27.8702   30.1731
461  1 14.5352   1.47793   29.1422
462  1 10.9743   4.03587   29.4892
463  1 17.4717   0.763993  28.7911
464  1 19.3019   0.79012   31.3499
465  1 18.6601   3.69087   30.0181
466  1 15.6048   5.40355   30.5909
467  1 21.5412   28.9321   29.5235
468  1 23.9877   28.6957   31.3892
469  1 26.677    2.61597   30.3212
470  1 23.6341   3.56608   30.751
471  1 29.334    6.5819    27.8567
472  1 4.05953   9.57416   29.697
473  1 4.2137    12.0623   31.2304
474  1 1.3365    10.3274   31.2116
475  1 4.72972   6.27816   29.7429
476  1 9.15286   6.55446   29.518
477  1 10.0697   13.0733   31.0241
478  1 6.69935   8.75364   31.0966
479  1 11.64     7.97452   28.4217
480  1 14.5343   8.17274   29.5489
481  1 17.6362   9.32832   29.7373
482  1 12.1233   9.82562   31.4399
483  1 17.1011   6.63055   27.9238
484  1 20.1729   6.25415   28.9969
485  1 22.6866   8.02711   30.4416
486  1 20.3894   9.64929   31.6034
487  1 23.3139   5.70306   28.5584
488  1 26.8744   5.86606   30.3519
489  1 28.0798   8.89284   29.8995
490  1 25.2367   9.16918   31.5392
491  1 0.635417  12.1747   28.7533
492  1 3.53145   13.7781   28.9854
493  1 6.50768   13.2076   27.4565
494  1 12.6528   13.8507   29.4237
495  1 14.4582   11.2142   29.2506
496  1 17.2922   12.4568   28.8365
497  1 20.1513   11.0747   28.8877
498  1 21.3535   13.4824   30.2102
499  1 25.007    11.3071   28.9493
500  1 27.4278   11.5922   31.0804
501  1 2.88551   15.8063   0.52686
502  1 1.31817   16.4747   2.93968
503  1 10.083    17.5092   1.8924
504  1 4.93984   15.6679   3.14392
505  1 15.0859   13.8201   2.6095
506  1 10.1969   12.6433   2.31066
507  1 20.1496   14.3103   1.56258
508  1 17.8943   14.4478   3.42853
509  1 27.579    14.4666   0.6543
510  1 25.2009   15.315    2.35519
511  1 1.38769   18.468    31.3359
512  1 4.09496   18.7933   0.757034
513  1 2.83117   21.1601   2.60064
514  1 29.2961   20.1548   1.95168
515  1 6.15105   18.9106   30.1663
516  1 8.42446   19.6908   0.417424
517  1 10.0083   22.1585   0.778419
518  1 5.98343   21.0137   2.05832
519  1 12.4498   19.1489   1.32128
520  1 14.7312   16.3668   0.993618
521  1 15.7059   19.6361   0.90782
522  1 11.7256   18.1911   4.505
523  1 18.1853   16.9275   31.5429
524  1 23.067    17.6513   2.12039
525  1 20.4044   18.9308   0.504672
526  1 18.3592   20.4191   2.06504
527  1 25.8864   18.8096   2.00504
528  1 28.3223   17.2839   1.04725
529  1 26.351    21.474    0.691222
530  1 23.3071   21.7086   1.62638
531  1 1.02765   23.0188   0.693609
532  1 4.75837   25.4719   1.3088
533  1 4.61703   28.4179   1.49487
534  1 29.2352   28.3097   2.61777
535  1 7.54788   23.5972   1.80022
536  1 9.95228   25.4388   0.356751
537  1 7.76507   27.0931   1.72734
538  1 6.30633   25.7276   4.09634
539  1 12.3097   21.8725   2.65294
540  1 13.8546   24.6137   2.92825
541  1 15.7615   27.0139   3.83248
542  1 10.3209   27.5225   3.48431
543  1 18.2463   24.6146   0.290535
544  1 20.4577   22.389    0.878458
545  1 19.7558   25.0969   2.81131
546  1 16.682    27.1105   1.03951
547  1 24.1624   24.11     31.9715
548  1 27.318    24.2683   0.391161
549  1 25.3819   26.7748   1.3638
550  1 22.3251   26.7967   2.02609
551  1 2.61958   14.7917   5.17422
552  1 27.7367   14.1993   5.23156
553  1 8.92788   16.0568   4.51645
554  1 6.37821   15.1181   6.08323
555  1 13.5866   12.415    5.06987
556  1 11.054    13.2149   6.45938
557  1 20.2433   14.9924   5.36462
558  1 16.6132   13.4138   6.08753
559  1 24.9871   14.9745   6.12634
560  1 22.524    16.8234   6.865
561  1 0.604504  18.8449   4.83957
562  1 3.73011   18.3474   4.1121
563  1 2.51385   21.254    5.58188
564  1 28.9968   21.3349   6.55484
565  1 6.95375   18.1551   2.73206
566  1 8.12671   18.9024   5.38101
567  1 10.4043   20.8279   4.74253
568  1 5.53967   19.9403   6.28641
569  1 11.7332   14.854    3.45573
570  1 14.5394   17.8633   3.67192
571  1 14.9615   20.7912   3.93608
572  1 12.4515   19.2218   7.38924
573  1 17.4985   17.3937   2.41207
574  1 20.3607   16.8155   3.1074
575  1 21.218    19.9202   3.42256
576  1 17.8269   20.0512   4.93808
577  1 24.476    17.6097   4.66098
578  1 27.5182   16.8252   3.9459
579  1 27.2729   21.3049   3.8991
580  1 24.2484   20.8125   4.42167
581  1 0.400415  25.1492   2.59533
582  1 3.13339   24.0787   3.26674
583  1 2.79413   28.5988   4.00097
584  1 0.346735  26.9841   5.44084
585  1 5.31732   22.5033   4.60471
586  1 8.27884   23.1071   4.91529
587  1 8.62898   26.2841   5.83909
588  1 3.55585   26.0611   5.57004
589  1 10.6106   24.4022   3.18637
590  1 16.5908   22.8995   2.21691
591  1 14.478    24.5754   5.79068
592  1 11.539    24.9377   6.0556
593  1 17.5078   24.3903   4.53043
594  1 21.3577   22.9597   4.24252
595  1 21.8044   28.5713   4.3491
596  1 18.9131   27.3824   4.89916
597  1 23.8909   24.4808   3.41746
598  1 26.7995   24.1455   3.35075
599  1 26.6366   27.1522   4.12012
600  1 23.6854   26.5234   5.71648
601  1 2.76853   14.4936   8.11977
602  1 28.9057   14.491    7.83329
603  1 8.67429   14.5391   9.78515
604  1 4.55402   15.3162   10.9246
605  1 14.0448   13.3056   8.24748
606  1 11.1613   12.8598   9.41148
607  1 18.5567   15.0232   7.83651
608  1 16.5319   13.6965   9.8513
609  1 25.7175   14.6927   8.8446
610  1 22.4122   14.4061   8.58531
611  1 1.28546   17.2092   7.10419
612  1 3.10274   18.8605   9.21778
613  1 3.49832   21.644    8.27522
614  1 0.571382  21.0799   9.34532
615  1 4.42711   17.1828   6.93761
616  1 8.25786   16.9375   7.69434
617  1 9.35889   19.8919   8.38367
618  1 6.33369   20.7411   9.16958
619  1 11.3238   16.0949   6.65202
620  1 14.4541   15.4633   5.60115
621  1 15.8462   19.0707   7.40244
622  1 11.5919   19.9055   10.6243
623  1 17.1524   16.9241   5.65149
624  1 20.1094   18.2592   5.7859
625  1 21.637    20.6388   6.64938
626  1 17.9462   20.6253   8.91556
627  1 26.8598   19.0012   6.07887
628  1 27.5772   17.2255   8.2359
629  1 26.9631   22.4249   8.93654
630  1 24.9066   20.3625   7.8072
631  1 0.973767  24.0155   5.70334
632  1 2.39289   24.7422   8.22222
633  1 3.60897   27.0929   9.48396
634  1 29.2881   26.572    8.71227
635  1 5.42699   23.8379   7.3074
636  1 8.27557   22.9352   7.89504
637  1 9.01601   25.5749   8.86205
638  1 6.51927   26.3031   10.5108
639  1 11.2309   22.2395   7.12824
640  1 14.2192   21.7852   6.69878
641  1 14.8966   25.4179   9.22337
642  1 11.9595   25.5976   9.00617
643  1 18.9032   22.5175   6.28151
644  1 21.3653   24.2263   7.29689
645  1 20.9007   27.0954   7.17532
646  1 17.2409   26.1717   7.20268
647  1 24.0901   23.2359   6.25873
648  1 27.0301   23.8992   6.33148
649  1 26.7591   26.7298   7.17102
650  1 24.2685   25.7744   8.66178
651  1 1.48639   15.3759   10.7392
652  1 28.2371   13.8501   11.0439
653  1 7.13582   13.8798   12.3988
654  1 4.38487   12.4941   11.9865
655  1 12.7419   15.0205   10.8841
656  1 10.3933   13.7171   12.4998
657  1 18.326    14.8985   12.6377
658  1 15.0943   14.1185   12.5207
659  1 23.6292   15.2093   11.3963
660  1 20.5058   15.7334   10.4161
661  1 0.319642  18.1986   10.1759
662  1 2.71037   17.6575   12.374
663  1 2.25045   20.7376   11.9689
664  1 28.4717   19.7496   12.5545
665  1 6.03535   17.5528   9.49475
666  1 8.28427   17.0328   11.5764
667  1 8.35492   19.9675   11.6028
668  1 5.15744   19.5474   11.877
669  1 10.8208   17.0884   9.66936
670  1 13.9103   16.5933   8.51286
671  1 14.4669   19.2418   10.635
672  1 10.7376   19.6386   13.6806
673  1 16.7064   16.8117   9.71084
674  1 19.6869   18.0072   8.70862
675  1 20.7816   20.7981   9.87622
676  1 17.3236   20.2425   11.7622
677  1 23.0528   18.5246   9.14855
678  1 25.5023   17.4694   10.441
679  1 26.0656   20.3295   10.8799
680  1 23.3183   20.6239   11.9081
681  1 29.2748   23.884    10.4041
682  1 3.09301   23.3631   10.9935
683  1 2.88902   26.2299   12.2736
684  1 29.2544   25.6831   13.1084
685  1 5.92574   23.4504   10.4336
686  1 8.97247   22.7905   10.9219
687  1 9.37967   25.7668   12.0217
688  1 5.55332   26.7881   13.3023
689  1 12.1191   22.7803   9.97301
690  1 14.9605   22.3398   9.33892
691  1 15.2271   24.352    12.0713
692  1 12.2396   25.2963   12.0874
693  1 17.785    23.7915   8.8526
694  1 20.5182   23.9496   10.1675
695  1 22.1411   26.1047   11.1623
696  1 17.9334   25.6561   11.3089
697  1 23.6106   22.8221   9.47166
698  1 26.0736   24.6648   10.8
699  1 27.4123   27.1849   11.1682
700  1 24.6928   26.6299   12.9739
701  1 2.73311   15.4255   14.8264
702  1 28.6553   14.7095   14.8554
703  1 8.91691   14.2255   15.3226
704  1 5.8389    14.0579   15.4072
705  1 14.7234   15.7277   15.3864
706  1 11.7881   15.1271   15.1895
707  1 19.9747   15.0652   15.0229
708  1 16.9715   13.2168   14.9245
709  1 25.8345   13.9435   13.1304
710  1 22.8411   14.2902   14.3571
711  1 27.8133   16.5429   12.3613
712  1 0.60967   17.8232   14.5878
713  1 2.23369   20.4386   15.1481
714  1 28.3499   20.519    15.8313
715  1 5.71324   16.6617   13.4949
716  1 8.43267   17.1879   14.778
717  1 7.96041   20.456    14.5755
718  1 5.01807   19.5581   14.9429
719  1 11.0852   16.88     12.8416
720  1 14.0187   17.3378   12.8663
721  1 13.5785   19.5917   14.955
722  1 12.6711   22.3205   15.9516
723  1 16.987    17.4525   12.5546
724  1 19.4323   18.0512   14.3873
725  1 20.0349   20.6143   12.8758
726  1 16.4033   21.2379   15.2334
727  1 21.9399   17.7872   12.2015
728  1 24.9764   17.5156   13.4739
729  1 25.8045   20.4648   14.2694
730  1 22.5367   20.3721   14.8006
731  1 0.0669302 22.6654   13.3836
732  1 3.2672    23.4329   14.1023
733  1 3.31433   26.467    15.5333
734  1 0.368319  26.1848   16.2731
735  1 5.804     22.2151   13.0957
736  1 8.79555   23.3403   14.1274
737  1 8.50187   26.7428   14.7969
738  1 6.02217   24.4612   15.2534
739  1 11.7096   22.3702   13.0022
740  1 14.6049   21.509    12.6822
741  1 14.6758   25.8749   14.5171
742  1 11.2494   28.3408   14.7684
743  1 17.7332   22.9832   13.1933
744  1 20.6524   23.6224   13.229
745  1 20.007    26.5713   13.3132
746  1 17.2053   27.3815   15.0221
747  1 23.4573   23.5989   12.4979
748  1 26.4745   23.274    13.375
749  1 26.7775   25.7162   14.8571
750  1 22.5121   27.3624   14.9288
751  1 1.09559   15.0998   17.5548
752  1 27.2071   14.2182   17.8831
753  1 9.37083   15.5411   18.1294
754  1 4.0957    14.4588   18.1218
755  1 15.4154   15.6658   19.6291
756  1 12.3084   15.4143   18.3423
757  1 20.4108   14.3564   18.3007
758  1 17.5975   15.3401   17.2059
759  1 25.5791   15.5963   15.7073
760  1 23.3007   15.2127   17.652
761  1 27.885    17.4471   16.9146
762  1 2.15634   18.0783   17.3353
763  1 2.19128   20.9946   18.3794
764  1 28.5465   20.2548   18.8168
765  1 4.78875   17.0839   16.607
766  1 7.48078   17.6107   17.6421
767  1 9.01177   20.3001   17.2341
768  1 4.75407   19.5496   18.8862
769  1 11.1249   17.9745   16.3859
770  1 14.0387   18.1291   17.7523
771  1 14.5956   20.5113   19.8883
772  1 12.0929   20.6794   18.2038
773  1 16.5008   18.2139   15.6748
774  1 20.0923   17.5259   17.6256
775  1 19.5819   20.5927   16.185
776  1 16.9215   21.2473   18.1251
777  1 22.3703   17.3096   15.2798
778  1 24.9074   18.6436   16.6829
779  1 25.8114   21.6439   17.5095
780  1 22.7525   20.9859   17.9427
781  1 0.718595  23.1656   16.3542
782  1 3.69532   23.6931   17.3644
783  1 3.97131   26.4223   18.684
784  1 0.888056  26.3784   19.172
785  1 5.95539   21.6609   17.2509
786  1 10.0202   23.3128   17.4357
787  1 7.77059   25.1203   17.495
788  1 6.71191   27.8441   18.5493
789  1 11.43     25.0295   15.0922
790  1 15.1044   23.6698   16.4709
791  1 13.1717   27.1057   16.9637
792  1 10.2591   26.8651   17.6666
793  1 18.3478   24.7743   15.6641
794  1 21.1328   23.1787   16.1826
795  1 20.9307   26.0819   17.0378
796  1 17.3343   26.7936   19.7372
797  1 23.9888   22.9307   15.4031
798  1 27.1908   24.2433   17.5258
799  1 24.1793   25.4906   16.9639
800  1 22.6431   26.2196   19.6208
801  1 1.87752   14.6865   20.489
802  1 27.9617   14.6469   20.775
803  1 7.14558   13.5885   19.1923
804  1 6.47008   14.6869   22.1963
805  1 14.3837   14.0215   22.0507
806  1 11.1495   13.8088   22.2118
807  1 20.3017   14.8429   21.3067
808  1 17.298    14.9311   22.2835
809  1 25.0639   15.5331   19.9833
810  1 23.322    15.0222   22.2174
811  1 29.0962   17.2451   19.751
812  1 3.02616   17.5275   20.6451
813  1 1.88701   20.1551   21.5724
814  1 28.4734   21.4978   21.8018
815  1 5.63334   16.4446   19.7432
816  1 9.12808   15.6787   21.156
817  1 7.57455   18.9783   20.4206
818  1 5.13541   20.8462   21.7496
819  1 10.4518   18.22     19.4
820  1 15.2158   18.1477   21.4468
821  1 13.6816   21.2896   23.824
822  1 11.6785   19.6887   21.9342
823  1 17.3314   18.0971   18.9864
824  1 19.846    17.6973   20.9069
825  1 19.9826   20.5139   19.2197
826  1 17.6758   20.5755   21.4063
827  1 22.7379   17.9044   19.2087
828  1 26.0391   18.3284   19.5734
829  1 25.8242   21.0902   20.5597
830  1 23.8534   20.5522   22.7448
831  1 0.198186  23.4992   19.5354
832  1 3.24106   23.1296   20.528
833  1 3.00023   26.1088   21.7604
834  1 28.7727   27.3417   22.1284
835  1 5.98977   24.0587   19.5832
836  1 8.11468   21.911    19.8034
837  1 9.01604   27.873    20.5215
838  1 5.90493   26.6262   21.3816
839  1 11.0336   22.2586   20.4558
840  1 14.0212   23.1371   21.0103
841  1 14.6685   25.1728   18.8564
842  1 11.6883   25.1037   19.7149
843  1 17.7412   24.104    18.5921
844  1 20.5405   23.6452   19.2256
845  1 20.2866   26.2975   21.3883
846  1 17.2547   26.3433   22.6925
847  1 23.8491   23.3575   19.3724
848  1 26.4618   24.1847   20.7205
849  1 27.1037   26.8879   19.2723
850  1 24.8483   26.8909   21.4185
851  1 3.63151   14.3796   22.8712
852  1 0.482825  15.2177   23.5526
853  1 9.90083   13.481    24.8689
854  1 7.34483   14.7369   24.9597